LAMMPS data file via MDAnalysis

        1501  atoms
           0  bonds
           0  angles
           0  dihedrals
           0  impropers

           4  atom types
           0  bond types
           0  angle types
           0  dihedral types
           0  improper types

0.000000 100.000000 xlo xhi
0.000000 100.000000 ylo yhi
0.000000 1100.000000 zlo zhi


Masses

1 0.000000
2 1.000000
3 1.000000
4 0.000000

Atoms

1 0 1 -1.000000 10.000000 100.000000 0.000000
2 0 1 0.000000 10.000000 100.000000 1.000000
3 0 1 -1.000000 10.000000 100.000000 2.000000
4 0 1 0.000000 10.000000 100.000000 3.000000
5 0 1 -1.000000 10.000000 100.000000 4.000000
6 0 1 0.000000 10.000000 100.000000 5.000000
7 0 1 -1.000000 10.000000 100.000000 6.000000
8 0 1 0.000000 10.000000 100.000000 7.000000
9 0 1 -1.000000 10.000000 100.000000 8.000000
10 0 1 0.000000 10.000000 100.000000 9.000000
11 0 1 -1.000000 10.000000 100.000000 10.000000
12 0 1 0.000000 10.000000 100.000000 11.000000
13 0 1 -1.000000 10.000000 100.000000 12.000000
14 0 1 0.000000 10.000000 100.000000 13.000000
15 0 1 -1.000000 10.000000 100.000000 14.000000
16 0 1 0.000000 10.000000 100.000000 15.000000
17 0 1 -1.000000 10.000000 100.000000 16.000000
18 0 1 0.000000 10.000000 100.000000 17.000000
19 0 1 -1.000000 10.000000 100.000000 18.000000
20 0 1 0.000000 10.000000 100.000000 19.000000
21 0 1 -1.000000 10.000000 100.000000 20.000000
22 0 1 0.000000 10.000000 100.000000 21.000000
23 0 1 -1.000000 10.000000 100.000000 22.000000
24 0 1 0.000000 10.000000 100.000000 23.000000
25 0 1 -1.000000 10.000000 100.000000 24.000000
26 0 1 0.000000 10.000000 100.000000 25.000000
27 0 1 -1.000000 10.000000 100.000000 26.000000
28 0 1 0.000000 10.000000 100.000000 27.000000
29 0 1 -1.000000 10.000000 100.000000 28.000000
30 0 1 0.000000 10.000000 100.000000 29.000000
31 0 1 -1.000000 10.000000 100.000000 30.000000
32 0 1 0.000000 10.000000 100.000000 31.000000
33 0 1 -1.000000 10.000000 100.000000 32.000000
34 0 1 0.000000 10.000000 100.000000 33.000000
35 0 1 -1.000000 10.000000 100.000000 34.000000
36 0 1 0.000000 10.000000 100.000000 35.000000
37 0 1 -1.000000 10.000000 100.000000 36.000000
38 0 1 0.000000 10.000000 100.000000 37.000000
39 0 1 -1.000000 10.000000 100.000000 38.000000
40 0 1 0.000000 10.000000 100.000000 39.000000
41 0 1 -1.000000 10.000000 100.000000 40.000000
42 0 1 0.000000 10.000000 100.000000 41.000000
43 0 1 -1.000000 10.000000 100.000000 42.000000
44 0 1 0.000000 10.000000 100.000000 43.000000
45 0 1 -1.000000 10.000000 100.000000 44.000000
46 0 1 0.000000 10.000000 100.000000 45.000000
47 0 1 -1.000000 10.000000 100.000000 46.000000
48 0 1 0.000000 10.000000 100.000000 47.000000
49 0 1 -1.000000 10.000000 100.000000 48.000000
50 0 1 0.000000 10.000000 100.000000 49.000000
51 0 1 -1.000000 10.000000 100.000000 50.000000
52 0 1 0.000000 10.000000 100.000000 51.000000
53 0 1 -1.000000 10.000000 100.000000 52.000000
54 0 1 0.000000 10.000000 100.000000 53.000000
55 0 1 -1.000000 10.000000 100.000000 54.000000
56 0 1 0.000000 10.000000 100.000000 55.000000
57 0 1 -1.000000 10.000000 100.000000 56.000000
58 0 1 0.000000 10.000000 100.000000 57.000000
59 0 1 -1.000000 10.000000 100.000000 58.000000
60 0 1 0.000000 10.000000 100.000000 59.000000
61 0 1 -1.000000 10.000000 100.000000 60.000000
62 0 1 0.000000 10.000000 100.000000 61.000000
63 0 1 -1.000000 10.000000 100.000000 62.000000
64 0 1 0.000000 10.000000 100.000000 63.000000
65 0 1 -1.000000 10.000000 100.000000 64.000000
66 0 1 0.000000 10.000000 100.000000 65.000000
67 0 1 -1.000000 10.000000 100.000000 66.000000
68 0 1 0.000000 10.000000 100.000000 67.000000
69 0 1 -1.000000 10.000000 100.000000 68.000000
70 0 1 0.000000 10.000000 100.000000 69.000000
71 0 1 -1.000000 10.000000 100.000000 70.000000
72 0 1 0.000000 10.000000 100.000000 71.000000
73 0 1 -1.000000 10.000000 100.000000 72.000000
74 0 1 0.000000 10.000000 100.000000 73.000000
75 0 1 -1.000000 10.000000 100.000000 74.000000
76 0 1 0.000000 10.000000 100.000000 75.000000
77 0 1 -1.000000 10.000000 100.000000 76.000000
78 0 1 0.000000 10.000000 100.000000 77.000000
79 0 1 -1.000000 10.000000 100.000000 78.000000
80 0 1 0.000000 10.000000 100.000000 79.000000
81 0 1 -1.000000 10.000000 100.000000 80.000000
82 0 1 0.000000 10.000000 100.000000 81.000000
83 0 1 -1.000000 10.000000 100.000000 82.000000
84 0 1 0.000000 10.000000 100.000000 83.000000
85 0 1 -1.000000 10.000000 100.000000 84.000000
86 0 1 0.000000 10.000000 100.000000 85.000000
87 0 1 -1.000000 10.000000 100.000000 86.000000
88 0 1 0.000000 10.000000 100.000000 87.000000
89 0 1 -1.000000 10.000000 100.000000 88.000000
90 0 1 0.000000 10.000000 100.000000 89.000000
91 0 1 -1.000000 10.000000 100.000000 90.000000
92 0 1 0.000000 10.000000 100.000000 91.000000
93 0 1 -1.000000 10.000000 100.000000 92.000000
94 0 1 0.000000 10.000000 100.000000 93.000000
95 0 1 -1.000000 10.000000 100.000000 94.000000
96 0 1 0.000000 10.000000 100.000000 95.000000
97 0 1 -1.000000 10.000000 100.000000 96.000000
98 0 1 0.000000 10.000000 100.000000 97.000000
99 0 1 -1.000000 10.000000 100.000000 98.000000
100 0 1 0.000000 10.000000 100.000000 99.000000
101 0 1 -1.000000 10.000000 100.000000 100.000000
102 0 1 0.000000 10.000000 100.000000 101.000000
103 0 1 -1.000000 10.000000 100.000000 102.000000
104 0 1 0.000000 10.000000 100.000000 103.000000
105 0 1 -1.000000 10.000000 100.000000 104.000000
106 0 1 0.000000 10.000000 100.000000 105.000000
107 0 1 -1.000000 10.000000 100.000000 106.000000
108 0 1 0.000000 10.000000 100.000000 107.000000
109 0 1 -1.000000 10.000000 100.000000 108.000000
110 0 1 0.000000 10.000000 100.000000 109.000000
111 0 1 -1.000000 10.000000 100.000000 110.000000
112 0 1 0.000000 10.000000 100.000000 111.000000
113 0 1 -1.000000 10.000000 100.000000 112.000000
114 0 1 0.000000 10.000000 100.000000 113.000000
115 0 1 -1.000000 10.000000 100.000000 114.000000
116 0 1 0.000000 10.000000 100.000000 115.000000
117 0 1 -1.000000 10.000000 100.000000 116.000000
118 0 1 0.000000 10.000000 100.000000 117.000000
119 0 1 -1.000000 10.000000 100.000000 118.000000
120 0 1 0.000000 10.000000 100.000000 119.000000
121 0 1 -1.000000 10.000000 100.000000 120.000000
122 0 1 0.000000 10.000000 100.000000 121.000000
123 0 1 -1.000000 10.000000 100.000000 122.000000
124 0 1 0.000000 10.000000 100.000000 123.000000
125 0 1 -1.000000 10.000000 100.000000 124.000000
126 0 1 0.000000 10.000000 100.000000 125.000000
127 0 1 -1.000000 10.000000 100.000000 126.000000
128 0 1 0.000000 10.000000 100.000000 127.000000
129 0 1 -1.000000 10.000000 100.000000 128.000000
130 0 1 0.000000 10.000000 100.000000 129.000000
131 0 1 -1.000000 10.000000 100.000000 130.000000
132 0 1 0.000000 10.000000 100.000000 131.000000
133 0 1 -1.000000 10.000000 100.000000 132.000000
134 0 1 0.000000 10.000000 100.000000 133.000000
135 0 1 -1.000000 10.000000 100.000000 134.000000
136 0 1 0.000000 10.000000 100.000000 135.000000
137 0 1 -1.000000 10.000000 100.000000 136.000000
138 0 1 0.000000 10.000000 100.000000 137.000000
139 0 1 -1.000000 10.000000 100.000000 138.000000
140 0 1 0.000000 10.000000 100.000000 139.000000
141 0 1 -1.000000 10.000000 100.000000 140.000000
142 0 1 0.000000 10.000000 100.000000 141.000000
143 0 1 -1.000000 10.000000 100.000000 142.000000
144 0 1 0.000000 10.000000 100.000000 143.000000
145 0 1 -1.000000 10.000000 100.000000 144.000000
146 0 1 0.000000 10.000000 100.000000 145.000000
147 0 1 -1.000000 10.000000 100.000000 146.000000
148 0 1 0.000000 10.000000 100.000000 147.000000
149 0 1 -1.000000 10.000000 100.000000 148.000000
150 0 1 0.000000 10.000000 100.000000 149.000000
151 0 1 -1.000000 10.000000 100.000000 150.000000
152 0 1 0.000000 10.000000 100.000000 151.000000
153 0 1 -1.000000 10.000000 100.000000 152.000000
154 0 1 0.000000 10.000000 100.000000 153.000000
155 0 1 -1.000000 10.000000 100.000000 154.000000
156 0 1 0.000000 10.000000 100.000000 155.000000
157 0 1 -1.000000 10.000000 100.000000 156.000000
158 0 1 0.000000 10.000000 100.000000 157.000000
159 0 1 -1.000000 10.000000 100.000000 158.000000
160 0 1 0.000000 10.000000 100.000000 159.000000
161 0 1 -1.000000 10.000000 100.000000 160.000000
162 0 1 0.000000 10.000000 100.000000 161.000000
163 0 1 -1.000000 10.000000 100.000000 162.000000
164 0 1 0.000000 10.000000 100.000000 163.000000
165 0 1 -1.000000 10.000000 100.000000 164.000000
166 0 1 0.000000 10.000000 100.000000 165.000000
167 0 1 -1.000000 10.000000 100.000000 166.000000
168 0 1 0.000000 10.000000 100.000000 167.000000
169 0 1 -1.000000 10.000000 100.000000 168.000000
170 0 1 0.000000 10.000000 100.000000 169.000000
171 0 1 -1.000000 10.000000 100.000000 170.000000
172 0 1 0.000000 10.000000 100.000000 171.000000
173 0 1 -1.000000 10.000000 100.000000 172.000000
174 0 1 0.000000 10.000000 100.000000 173.000000
175 0 1 -1.000000 10.000000 100.000000 174.000000
176 0 1 0.000000 10.000000 100.000000 175.000000
177 0 1 -1.000000 10.000000 100.000000 176.000000
178 0 1 0.000000 10.000000 100.000000 177.000000
179 0 1 -1.000000 10.000000 100.000000 178.000000
180 0 1 0.000000 10.000000 100.000000 179.000000
181 0 1 -1.000000 10.000000 100.000000 180.000000
182 0 1 0.000000 10.000000 100.000000 181.000000
183 0 1 -1.000000 10.000000 100.000000 182.000000
184 0 1 0.000000 10.000000 100.000000 183.000000
185 0 1 -1.000000 10.000000 100.000000 184.000000
186 0 1 0.000000 10.000000 100.000000 185.000000
187 0 1 -1.000000 10.000000 100.000000 186.000000
188 0 1 0.000000 10.000000 100.000000 187.000000
189 0 1 -1.000000 10.000000 100.000000 188.000000
190 0 1 0.000000 10.000000 100.000000 189.000000
191 0 1 -1.000000 10.000000 100.000000 190.000000
192 0 1 0.000000 10.000000 100.000000 191.000000
193 0 1 -1.000000 10.000000 100.000000 192.000000
194 0 1 0.000000 10.000000 100.000000 193.000000
195 0 1 -1.000000 10.000000 100.000000 194.000000
196 0 1 0.000000 10.000000 100.000000 195.000000
197 0 1 -1.000000 10.000000 100.000000 196.000000
198 0 1 0.000000 10.000000 100.000000 197.000000
199 0 1 -1.000000 10.000000 100.000000 198.000000
200 0 1 0.000000 10.000000 100.000000 199.000000
201 0 1 -1.000000 10.000000 100.000000 200.000000
202 0 1 0.000000 10.000000 100.000000 201.000000
203 0 1 -1.000000 10.000000 100.000000 202.000000
204 0 1 0.000000 10.000000 100.000000 203.000000
205 0 1 -1.000000 10.000000 100.000000 204.000000
206 0 1 0.000000 10.000000 100.000000 205.000000
207 0 1 -1.000000 10.000000 100.000000 206.000000
208 0 1 0.000000 10.000000 100.000000 207.000000
209 0 1 -1.000000 10.000000 100.000000 208.000000
210 0 1 0.000000 10.000000 100.000000 209.000000
211 0 1 -1.000000 10.000000 100.000000 210.000000
212 0 1 0.000000 10.000000 100.000000 211.000000
213 0 1 -1.000000 10.000000 100.000000 212.000000
214 0 1 0.000000 10.000000 100.000000 213.000000
215 0 1 -1.000000 10.000000 100.000000 214.000000
216 0 1 0.000000 10.000000 100.000000 215.000000
217 0 1 -1.000000 10.000000 100.000000 216.000000
218 0 1 0.000000 10.000000 100.000000 217.000000
219 0 1 -1.000000 10.000000 100.000000 218.000000
220 0 1 0.000000 10.000000 100.000000 219.000000
221 0 1 -1.000000 10.000000 100.000000 220.000000
222 0 1 0.000000 10.000000 100.000000 221.000000
223 0 1 -1.000000 10.000000 100.000000 222.000000
224 0 1 0.000000 10.000000 100.000000 223.000000
225 0 1 -1.000000 10.000000 100.000000 224.000000
226 0 1 0.000000 10.000000 100.000000 225.000000
227 0 1 -1.000000 10.000000 100.000000 226.000000
228 0 1 0.000000 10.000000 100.000000 227.000000
229 0 1 -1.000000 10.000000 100.000000 228.000000
230 0 1 0.000000 10.000000 100.000000 229.000000
231 0 1 -1.000000 10.000000 100.000000 230.000000
232 0 1 0.000000 10.000000 100.000000 231.000000
233 0 1 -1.000000 10.000000 100.000000 232.000000
234 0 1 0.000000 10.000000 100.000000 233.000000
235 0 1 -1.000000 10.000000 100.000000 234.000000
236 0 1 0.000000 10.000000 100.000000 235.000000
237 0 1 -1.000000 10.000000 100.000000 236.000000
238 0 1 0.000000 10.000000 100.000000 237.000000
239 0 1 -1.000000 10.000000 100.000000 238.000000
240 0 1 0.000000 10.000000 100.000000 239.000000
241 0 1 -1.000000 10.000000 100.000000 240.000000
242 0 1 0.000000 10.000000 100.000000 241.000000
243 0 1 -1.000000 10.000000 100.000000 242.000000
244 0 1 0.000000 10.000000 100.000000 243.000000
245 0 1 -1.000000 10.000000 100.000000 244.000000
246 0 1 0.000000 10.000000 100.000000 245.000000
247 0 1 -1.000000 10.000000 100.000000 246.000000
248 0 1 0.000000 10.000000 100.000000 247.000000
249 0 1 -1.000000 10.000000 100.000000 248.000000
250 0 1 0.000000 10.000000 100.000000 249.000000
251 0 1 -1.000000 10.000000 100.000000 250.000000
252 0 1 0.000000 10.000000 100.000000 251.000000
253 0 1 -1.000000 10.000000 100.000000 252.000000
254 0 1 0.000000 10.000000 100.000000 253.000000
255 0 1 -1.000000 10.000000 100.000000 254.000000
256 0 1 0.000000 10.000000 100.000000 255.000000
257 0 1 -1.000000 10.000000 100.000000 256.000000
258 0 1 0.000000 10.000000 100.000000 257.000000
259 0 1 -1.000000 10.000000 100.000000 258.000000
260 0 1 0.000000 10.000000 100.000000 259.000000
261 0 1 -1.000000 10.000000 100.000000 260.000000
262 0 1 0.000000 10.000000 100.000000 261.000000
263 0 1 -1.000000 10.000000 100.000000 262.000000
264 0 1 0.000000 10.000000 100.000000 263.000000
265 0 1 -1.000000 10.000000 100.000000 264.000000
266 0 1 0.000000 10.000000 100.000000 265.000000
267 0 1 -1.000000 10.000000 100.000000 266.000000
268 0 1 0.000000 10.000000 100.000000 267.000000
269 0 1 -1.000000 10.000000 100.000000 268.000000
270 0 1 0.000000 10.000000 100.000000 269.000000
271 0 1 -1.000000 10.000000 100.000000 270.000000
272 0 1 0.000000 10.000000 100.000000 271.000000
273 0 1 -1.000000 10.000000 100.000000 272.000000
274 0 1 0.000000 10.000000 100.000000 273.000000
275 0 1 -1.000000 10.000000 100.000000 274.000000
276 0 1 0.000000 10.000000 100.000000 275.000000
277 0 1 -1.000000 10.000000 100.000000 276.000000
278 0 1 0.000000 10.000000 100.000000 277.000000
279 0 1 -1.000000 10.000000 100.000000 278.000000
280 0 1 0.000000 10.000000 100.000000 279.000000
281 0 1 -1.000000 10.000000 100.000000 280.000000
282 0 1 0.000000 10.000000 100.000000 281.000000
283 0 1 -1.000000 10.000000 100.000000 282.000000
284 0 1 0.000000 10.000000 100.000000 283.000000
285 0 1 -1.000000 10.000000 100.000000 284.000000
286 0 1 0.000000 10.000000 100.000000 285.000000
287 0 1 -1.000000 10.000000 100.000000 286.000000
288 0 1 0.000000 10.000000 100.000000 287.000000
289 0 1 -1.000000 10.000000 100.000000 288.000000
290 0 1 0.000000 10.000000 100.000000 289.000000
291 0 1 -1.000000 10.000000 100.000000 290.000000
292 0 1 0.000000 10.000000 100.000000 291.000000
293 0 1 -1.000000 10.000000 100.000000 292.000000
294 0 1 0.000000 10.000000 100.000000 293.000000
295 0 1 -1.000000 10.000000 100.000000 294.000000
296 0 1 0.000000 10.000000 100.000000 295.000000
297 0 1 -1.000000 10.000000 100.000000 296.000000
298 0 1 0.000000 10.000000 100.000000 297.000000
299 0 1 -1.000000 10.000000 100.000000 298.000000
300 0 1 0.000000 10.000000 100.000000 299.000000
301 0 1 -1.000000 10.000000 100.000000 300.000000
302 0 1 0.000000 10.000000 100.000000 301.000000
303 0 1 -1.000000 10.000000 100.000000 302.000000
304 0 1 0.000000 10.000000 100.000000 303.000000
305 0 1 -1.000000 10.000000 100.000000 304.000000
306 0 1 0.000000 10.000000 100.000000 305.000000
307 0 1 -1.000000 10.000000 100.000000 306.000000
308 0 1 0.000000 10.000000 100.000000 307.000000
309 0 1 -1.000000 10.000000 100.000000 308.000000
310 0 1 0.000000 10.000000 100.000000 309.000000
311 0 1 -1.000000 10.000000 100.000000 310.000000
312 0 1 0.000000 10.000000 100.000000 311.000000
313 0 1 -1.000000 10.000000 100.000000 312.000000
314 0 1 0.000000 10.000000 100.000000 313.000000
315 0 1 -1.000000 10.000000 100.000000 314.000000
316 0 1 0.000000 10.000000 100.000000 315.000000
317 0 1 -1.000000 10.000000 100.000000 316.000000
318 0 1 0.000000 10.000000 100.000000 317.000000
319 0 1 -1.000000 10.000000 100.000000 318.000000
320 0 1 0.000000 10.000000 100.000000 319.000000
321 0 1 -1.000000 10.000000 100.000000 320.000000
322 0 1 0.000000 10.000000 100.000000 321.000000
323 0 1 -1.000000 10.000000 100.000000 322.000000
324 0 1 0.000000 10.000000 100.000000 323.000000
325 0 1 -1.000000 10.000000 100.000000 324.000000
326 0 1 0.000000 10.000000 100.000000 325.000000
327 0 1 -1.000000 10.000000 100.000000 326.000000
328 0 1 0.000000 10.000000 100.000000 327.000000
329 0 1 -1.000000 10.000000 100.000000 328.000000
330 0 1 0.000000 10.000000 100.000000 329.000000
331 0 1 -1.000000 10.000000 100.000000 330.000000
332 0 1 0.000000 10.000000 100.000000 331.000000
333 0 1 -1.000000 10.000000 100.000000 332.000000
334 0 1 0.000000 10.000000 100.000000 333.000000
335 0 1 -1.000000 10.000000 100.000000 334.000000
336 0 1 0.000000 10.000000 100.000000 335.000000
337 0 1 -1.000000 10.000000 100.000000 336.000000
338 0 1 0.000000 10.000000 100.000000 337.000000
339 0 1 -1.000000 10.000000 100.000000 338.000000
340 0 1 0.000000 10.000000 100.000000 339.000000
341 0 1 -1.000000 10.000000 100.000000 340.000000
342 0 1 0.000000 10.000000 100.000000 341.000000
343 0 1 -1.000000 10.000000 100.000000 342.000000
344 0 1 0.000000 10.000000 100.000000 343.000000
345 0 1 -1.000000 10.000000 100.000000 344.000000
346 0 1 0.000000 10.000000 100.000000 345.000000
347 0 1 -1.000000 10.000000 100.000000 346.000000
348 0 1 0.000000 10.000000 100.000000 347.000000
349 0 1 -1.000000 10.000000 100.000000 348.000000
350 0 1 0.000000 10.000000 100.000000 349.000000
351 0 1 -1.000000 10.000000 100.000000 350.000000
352 0 1 0.000000 10.000000 100.000000 351.000000
353 0 1 -1.000000 10.000000 100.000000 352.000000
354 0 1 0.000000 10.000000 100.000000 353.000000
355 0 1 -1.000000 10.000000 100.000000 354.000000
356 0 1 0.000000 10.000000 100.000000 355.000000
357 0 1 -1.000000 10.000000 100.000000 356.000000
358 0 1 0.000000 10.000000 100.000000 357.000000
359 0 1 -1.000000 10.000000 100.000000 358.000000
360 0 1 0.000000 10.000000 100.000000 359.000000
361 0 1 -1.000000 10.000000 100.000000 360.000000
362 0 1 0.000000 10.000000 100.000000 361.000000
363 0 1 -1.000000 10.000000 100.000000 362.000000
364 0 1 0.000000 10.000000 100.000000 363.000000
365 0 1 -1.000000 10.000000 100.000000 364.000000
366 0 1 0.000000 10.000000 100.000000 365.000000
367 0 1 -1.000000 10.000000 100.000000 366.000000
368 0 1 0.000000 10.000000 100.000000 367.000000
369 0 1 -1.000000 10.000000 100.000000 368.000000
370 0 1 0.000000 10.000000 100.000000 369.000000
371 0 1 -1.000000 10.000000 100.000000 370.000000
372 0 1 0.000000 10.000000 100.000000 371.000000
373 0 1 -1.000000 10.000000 100.000000 372.000000
374 0 1 0.000000 10.000000 100.000000 373.000000
375 0 1 -1.000000 10.000000 100.000000 374.000000
376 0 1 0.000000 10.000000 100.000000 375.000000
377 0 1 -1.000000 10.000000 100.000000 376.000000
378 0 1 0.000000 10.000000 100.000000 377.000000
379 0 1 -1.000000 10.000000 100.000000 378.000000
380 0 1 0.000000 10.000000 100.000000 379.000000
381 0 1 -1.000000 10.000000 100.000000 380.000000
382 0 1 0.000000 10.000000 100.000000 381.000000
383 0 1 -1.000000 10.000000 100.000000 382.000000
384 0 1 0.000000 10.000000 100.000000 383.000000
385 0 1 -1.000000 10.000000 100.000000 384.000000
386 0 1 0.000000 10.000000 100.000000 385.000000
387 0 1 -1.000000 10.000000 100.000000 386.000000
388 0 1 0.000000 10.000000 100.000000 387.000000
389 0 1 -1.000000 10.000000 100.000000 388.000000
390 0 1 0.000000 10.000000 100.000000 389.000000
391 0 1 -1.000000 10.000000 100.000000 390.000000
392 0 1 0.000000 10.000000 100.000000 391.000000
393 0 1 -1.000000 10.000000 100.000000 392.000000
394 0 1 0.000000 10.000000 100.000000 393.000000
395 0 1 -1.000000 10.000000 100.000000 394.000000
396 0 1 0.000000 10.000000 100.000000 395.000000
397 0 1 -1.000000 10.000000 100.000000 396.000000
398 0 1 0.000000 10.000000 100.000000 397.000000
399 0 1 -1.000000 10.000000 100.000000 398.000000
400 0 1 0.000000 10.000000 100.000000 399.000000
401 0 1 -1.000000 10.000000 100.000000 400.000000
402 0 1 0.000000 10.000000 100.000000 401.000000
403 0 1 -1.000000 10.000000 100.000000 402.000000
404 0 1 0.000000 10.000000 100.000000 403.000000
405 0 1 -1.000000 10.000000 100.000000 404.000000
406 0 1 0.000000 10.000000 100.000000 405.000000
407 0 1 -1.000000 10.000000 100.000000 406.000000
408 0 1 0.000000 10.000000 100.000000 407.000000
409 0 1 -1.000000 10.000000 100.000000 408.000000
410 0 1 0.000000 10.000000 100.000000 409.000000
411 0 1 -1.000000 10.000000 100.000000 410.000000
412 0 1 0.000000 10.000000 100.000000 411.000000
413 0 1 -1.000000 10.000000 100.000000 412.000000
414 0 1 0.000000 10.000000 100.000000 413.000000
415 0 1 -1.000000 10.000000 100.000000 414.000000
416 0 1 0.000000 10.000000 100.000000 415.000000
417 0 1 -1.000000 10.000000 100.000000 416.000000
418 0 1 0.000000 10.000000 100.000000 417.000000
419 0 1 -1.000000 10.000000 100.000000 418.000000
420 0 1 0.000000 10.000000 100.000000 419.000000
421 0 1 -1.000000 10.000000 100.000000 420.000000
422 0 1 0.000000 10.000000 100.000000 421.000000
423 0 1 -1.000000 10.000000 100.000000 422.000000
424 0 1 0.000000 10.000000 100.000000 423.000000
425 0 1 -1.000000 10.000000 100.000000 424.000000
426 0 1 0.000000 10.000000 100.000000 425.000000
427 0 1 -1.000000 10.000000 100.000000 426.000000
428 0 1 0.000000 10.000000 100.000000 427.000000
429 0 1 -1.000000 10.000000 100.000000 428.000000
430 0 1 0.000000 10.000000 100.000000 429.000000
431 0 1 -1.000000 10.000000 100.000000 430.000000
432 0 1 0.000000 10.000000 100.000000 431.000000
433 0 1 -1.000000 10.000000 100.000000 432.000000
434 0 1 0.000000 10.000000 100.000000 433.000000
435 0 1 -1.000000 10.000000 100.000000 434.000000
436 0 1 0.000000 10.000000 100.000000 435.000000
437 0 1 -1.000000 10.000000 100.000000 436.000000
438 0 1 0.000000 10.000000 100.000000 437.000000
439 0 1 -1.000000 10.000000 100.000000 438.000000
440 0 1 0.000000 10.000000 100.000000 439.000000
441 0 1 -1.000000 10.000000 100.000000 440.000000
442 0 1 0.000000 10.000000 100.000000 441.000000
443 0 1 -1.000000 10.000000 100.000000 442.000000
444 0 1 0.000000 10.000000 100.000000 443.000000
445 0 1 -1.000000 10.000000 100.000000 444.000000
446 0 1 0.000000 10.000000 100.000000 445.000000
447 0 1 -1.000000 10.000000 100.000000 446.000000
448 0 1 0.000000 10.000000 100.000000 447.000000
449 0 1 -1.000000 10.000000 100.000000 448.000000
450 0 1 0.000000 10.000000 100.000000 449.000000
451 0 1 -1.000000 10.000000 100.000000 450.000000
452 0 1 0.000000 10.000000 100.000000 451.000000
453 0 1 -1.000000 10.000000 100.000000 452.000000
454 0 1 0.000000 10.000000 100.000000 453.000000
455 0 1 -1.000000 10.000000 100.000000 454.000000
456 0 1 0.000000 10.000000 100.000000 455.000000
457 0 1 -1.000000 10.000000 100.000000 456.000000
458 0 1 0.000000 10.000000 100.000000 457.000000
459 0 1 -1.000000 10.000000 100.000000 458.000000
460 0 1 0.000000 10.000000 100.000000 459.000000
461 0 1 -1.000000 10.000000 100.000000 460.000000
462 0 1 0.000000 10.000000 100.000000 461.000000
463 0 1 -1.000000 10.000000 100.000000 462.000000
464 0 1 0.000000 10.000000 100.000000 463.000000
465 0 1 -1.000000 10.000000 100.000000 464.000000
466 0 1 0.000000 10.000000 100.000000 465.000000
467 0 1 -1.000000 10.000000 100.000000 466.000000
468 0 1 0.000000 10.000000 100.000000 467.000000
469 0 1 -1.000000 10.000000 100.000000 468.000000
470 0 1 0.000000 10.000000 100.000000 469.000000
471 0 1 -1.000000 10.000000 100.000000 470.000000
472 0 1 0.000000 10.000000 100.000000 471.000000
473 0 1 -1.000000 10.000000 100.000000 472.000000
474 0 1 0.000000 10.000000 100.000000 473.000000
475 0 1 -1.000000 10.000000 100.000000 474.000000
476 0 1 0.000000 10.000000 100.000000 475.000000
477 0 1 -1.000000 10.000000 100.000000 476.000000
478 0 1 0.000000 10.000000 100.000000 477.000000
479 0 1 -1.000000 10.000000 100.000000 478.000000
480 0 1 0.000000 10.000000 100.000000 479.000000
481 0 1 -1.000000 10.000000 100.000000 480.000000
482 0 1 0.000000 10.000000 100.000000 481.000000
483 0 1 -1.000000 10.000000 100.000000 482.000000
484 0 1 0.000000 10.000000 100.000000 483.000000
485 0 1 -1.000000 10.000000 100.000000 484.000000
486 0 1 0.000000 10.000000 100.000000 485.000000
487 0 1 -1.000000 10.000000 100.000000 486.000000
488 0 1 0.000000 10.000000 100.000000 487.000000
489 0 1 -1.000000 10.000000 100.000000 488.000000
490 0 1 0.000000 10.000000 100.000000 489.000000
491 0 1 -1.000000 10.000000 100.000000 490.000000
492 0 1 0.000000 10.000000 100.000000 491.000000
493 0 1 -1.000000 10.000000 100.000000 492.000000
494 0 1 0.000000 10.000000 100.000000 493.000000
495 0 1 -1.000000 10.000000 100.000000 494.000000
496 0 1 0.000000 10.000000 100.000000 495.000000
497 0 1 -1.000000 10.000000 100.000000 496.000000
498 0 1 0.000000 10.000000 100.000000 497.000000
499 0 1 -1.000000 10.000000 100.000000 498.000000
500 0 1 0.000000 10.000000 100.000000 499.000000
501 0 1 -1.000000 10.000000 100.000000 500.000000
502 0 1 0.000000 10.000000 100.000000 501.000000
503 0 1 -1.000000 10.000000 100.000000 502.000000
504 0 1 0.000000 10.000000 100.000000 503.000000
505 0 1 -1.000000 10.000000 100.000000 504.000000
506 0 1 0.000000 10.000000 100.000000 505.000000
507 0 1 -1.000000 10.000000 100.000000 506.000000
508 0 1 0.000000 10.000000 100.000000 507.000000
509 0 1 -1.000000 10.000000 100.000000 508.000000
510 0 1 0.000000 10.000000 100.000000 509.000000
511 0 1 -1.000000 10.000000 100.000000 510.000000
512 0 1 0.000000 10.000000 100.000000 511.000000
513 0 1 -1.000000 10.000000 100.000000 512.000000
514 0 1 0.000000 10.000000 100.000000 513.000000
515 0 1 -1.000000 10.000000 100.000000 514.000000
516 0 1 0.000000 10.000000 100.000000 515.000000
517 0 1 -1.000000 10.000000 100.000000 516.000000
518 0 1 0.000000 10.000000 100.000000 517.000000
519 0 1 -1.000000 10.000000 100.000000 518.000000
520 0 1 0.000000 10.000000 100.000000 519.000000
521 0 1 -1.000000 10.000000 100.000000 520.000000
522 0 1 0.000000 10.000000 100.000000 521.000000
523 0 1 -1.000000 10.000000 100.000000 522.000000
524 0 1 0.000000 10.000000 100.000000 523.000000
525 0 1 -1.000000 10.000000 100.000000 524.000000
526 0 1 0.000000 10.000000 100.000000 525.000000
527 0 1 -1.000000 10.000000 100.000000 526.000000
528 0 1 0.000000 10.000000 100.000000 527.000000
529 0 1 -1.000000 10.000000 100.000000 528.000000
530 0 1 0.000000 10.000000 100.000000 529.000000
531 0 1 -1.000000 10.000000 100.000000 530.000000
532 0 1 0.000000 10.000000 100.000000 531.000000
533 0 1 -1.000000 10.000000 100.000000 532.000000
534 0 1 0.000000 10.000000 100.000000 533.000000
535 0 1 -1.000000 10.000000 100.000000 534.000000
536 0 1 0.000000 10.000000 100.000000 535.000000
537 0 1 -1.000000 10.000000 100.000000 536.000000
538 0 1 0.000000 10.000000 100.000000 537.000000
539 0 1 -1.000000 10.000000 100.000000 538.000000
540 0 1 0.000000 10.000000 100.000000 539.000000
541 0 1 -1.000000 10.000000 100.000000 540.000000
542 0 1 0.000000 10.000000 100.000000 541.000000
543 0 1 -1.000000 10.000000 100.000000 542.000000
544 0 1 0.000000 10.000000 100.000000 543.000000
545 0 1 -1.000000 10.000000 100.000000 544.000000
546 0 1 0.000000 10.000000 100.000000 545.000000
547 0 1 -1.000000 10.000000 100.000000 546.000000
548 0 1 0.000000 10.000000 100.000000 547.000000
549 0 1 -1.000000 10.000000 100.000000 548.000000
550 0 1 0.000000 10.000000 100.000000 549.000000
551 0 1 -1.000000 10.000000 100.000000 550.000000
552 0 1 0.000000 10.000000 100.000000 551.000000
553 0 1 -1.000000 10.000000 100.000000 552.000000
554 0 1 0.000000 10.000000 100.000000 553.000000
555 0 1 -1.000000 10.000000 100.000000 554.000000
556 0 1 0.000000 10.000000 100.000000 555.000000
557 0 1 -1.000000 10.000000 100.000000 556.000000
558 0 1 0.000000 10.000000 100.000000 557.000000
559 0 1 -1.000000 10.000000 100.000000 558.000000
560 0 1 0.000000 10.000000 100.000000 559.000000
561 0 1 -1.000000 10.000000 100.000000 560.000000
562 0 1 0.000000 10.000000 100.000000 561.000000
563 0 1 -1.000000 10.000000 100.000000 562.000000
564 0 1 0.000000 10.000000 100.000000 563.000000
565 0 1 -1.000000 10.000000 100.000000 564.000000
566 0 1 0.000000 10.000000 100.000000 565.000000
567 0 1 -1.000000 10.000000 100.000000 566.000000
568 0 1 0.000000 10.000000 100.000000 567.000000
569 0 1 -1.000000 10.000000 100.000000 568.000000
570 0 1 0.000000 10.000000 100.000000 569.000000
571 0 1 -1.000000 10.000000 100.000000 570.000000
572 0 1 0.000000 10.000000 100.000000 571.000000
573 0 1 -1.000000 10.000000 100.000000 572.000000
574 0 1 0.000000 10.000000 100.000000 573.000000
575 0 1 -1.000000 10.000000 100.000000 574.000000
576 0 1 0.000000 10.000000 100.000000 575.000000
577 0 1 -1.000000 10.000000 100.000000 576.000000
578 0 1 0.000000 10.000000 100.000000 577.000000
579 0 1 -1.000000 10.000000 100.000000 578.000000
580 0 1 0.000000 10.000000 100.000000 579.000000
581 0 1 -1.000000 10.000000 100.000000 580.000000
582 0 1 0.000000 10.000000 100.000000 581.000000
583 0 1 -1.000000 10.000000 100.000000 582.000000
584 0 1 0.000000 10.000000 100.000000 583.000000
585 0 1 -1.000000 10.000000 100.000000 584.000000
586 0 1 0.000000 10.000000 100.000000 585.000000
587 0 1 -1.000000 10.000000 100.000000 586.000000
588 0 1 0.000000 10.000000 100.000000 587.000000
589 0 1 -1.000000 10.000000 100.000000 588.000000
590 0 1 0.000000 10.000000 100.000000 589.000000
591 0 1 -1.000000 10.000000 100.000000 590.000000
592 0 1 0.000000 10.000000 100.000000 591.000000
593 0 1 -1.000000 10.000000 100.000000 592.000000
594 0 1 0.000000 10.000000 100.000000 593.000000
595 0 1 -1.000000 10.000000 100.000000 594.000000
596 0 1 0.000000 10.000000 100.000000 595.000000
597 0 1 -1.000000 10.000000 100.000000 596.000000
598 0 1 0.000000 10.000000 100.000000 597.000000
599 0 1 -1.000000 10.000000 100.000000 598.000000
600 0 1 0.000000 10.000000 100.000000 599.000000
601 0 1 -1.000000 10.000000 100.000000 600.000000